&FCI NORB=4
NELEC=2
ORBSYM=[1, 1, 2, 2]
ISYM=8
IUHF=1

0.6757101469938736 1 1 1 1
0.6757101469938736 2 2 2 2
0.6645817196308036 1 1 3 3
0.6645817196308036 2 2 4 4
0.1809311953690519 3 1 3 1
0.1809311953690519 4 2 4 2
0.1809311953690519 3 1 1 3
0.1809311953690519 4 2 2 4
0.180931195369052 1 3 3 1
0.180931195369052 2 4 4 2
0.180931195369052 1 3 1 3
0.180931195369052 2 4 2 4
0.6645817196308038 3 3 1 1
0.6645817196308038 4 4 2 2
0.6985737090029313 3 3 3 3
0.6985737090029313 4 4 4 4
-1.2563390698650005 1 1 0 0
-1.7322220230154555e-17 1 3 0 0
0.0 1 2 0 0
0.0 1 4 0 0
-1.5577070953811113e-17 3 1 0 0
-0.47189601989248603 3 3 0 0
0.0 3 2 0 0
0.0 3 4 0 0
0.0 2 1 0 0
0.0 2 3 0 0
-1.2563390698650005 2 2 0 0
-1.7322220230154555e-17 2 4 0 0
0.0 4 1 0 0
0.0 4 3 0 0
-1.5577070953811113e-17 4 2 0 0
-0.47189601989248603 4 4 0 0
-0.580628922871127 1 0 0 0
0.6763362240000695 3 0 0 0
-0.580628922871127 2 0 0 0
0.6763362240000695 4 0 0 0
0.7199689944258503 0 0 0 0
