&FCI NORB=    4,
    NELEC=    2,
    ORBSYM= 1, 1, 1, 1,
    ISYM=    2,
    IUHF=1,
&END
  6.7570890667065342E-01 -3.4893536509221286E-27   1   1   1   1
  6.7570890667065342E-01  3.4893536509221286E-27   2   2   2   2
  6.6458409696549947E-01  1.4623571900409079E-36   1   1   3   3
  6.6458409696549947E-01 -1.4623571900409079E-36   2   2   4   4
  6.7570890667065342E-01  3.4893536509221286E-27   1   1   2   2
  6.7570890667065342E-01 -3.4893536509221286E-27   2   2   1   1
  6.6458409696549947E-01 -1.4623571900409079E-36   1   1   4   4
  6.6458409696549947E-01  1.4623571900409079E-36   2   2   3   3
  1.8092797570281430E-01  2.1599754163276356E-06   3   1   3   1
  1.8092797570281430E-01 -2.1599754163276356E-06   4   2   4   2
  1.8092797571570754E-01 -4.2351647362715017E-22   3   1   1   3
  1.8092797571570754E-01  4.2351647362715017E-22   4   2   2   4
  1.8092797571570754E-01 -4.2351647362715017E-22   3   1   4   2
  1.8092797571570754E-01  4.2351647362715017E-22   4   2   3   1
  1.8092797570281430E-01  2.1599754163276356E-06   3   1   2   4
  1.8092797570281430E-01 -2.1599754163276356E-06   4   2   1   3
  3.2450403482163400E-12 -3.9008089235549042E-12   3   2   3   2
  3.2450403482163400E-12  3.9008089235549042E-12   4   1   4   1
 -3.2450403482163448E-12  3.9008089235549042E-12   3   2   1   4
 -3.2450403482163448E-12 -3.9008089235549042E-12   4   1   2   3
 -3.1577693956192692E-11 -8.0779356694631609E-28   3   2   4   1
 -3.1577693956192692E-11  8.0779356694631609E-28   4   1   3   2
  3.1577693956192692E-11  8.0779356694631609E-28   3   2   2   3
  3.1577693956192692E-11 -8.0779356694631609E-28   4   1   1   4
  8.6751331174546571E-07  4.0677904395658656E-07   3   1   4   1
 -8.6751331174546571E-07  4.0677904395658656E-07   4   2   3   2
 -8.6751331174546571E-07 -4.0677904395658656E-07   3   1   2   3
  8.6751331174546571E-07 -4.0677904395658656E-07   4   2   1   4
 -8.6751816806764935E-07  4.0676868733880448E-07   3   1   3   2
  8.6751816806764935E-07  4.0676868733880448E-07   4   2   4   1
  8.6751816806764935E-07 -4.0676868733880448E-07   3   1   1   4
 -8.6751816806764935E-07 -4.0676868733880448E-07   4   2   2   3
  8.6751331174546593E-07  4.0677904395658651E-07   4   1   3   1
 -8.6751331174546593E-07  4.0677904395658651E-07   3   2   4   2
  8.6751816806764956E-07  4.0676868733880437E-07   4   1   1   3
 -8.6751816806764956E-07  4.0676868733880437E-07   3   2   2   4
 -8.6751816806764956E-07  4.0676868733880443E-07   3   2   3   1
  8.6751816806764956E-07  4.0676868733880443E-07   4   1   4   2
 -8.6751331174546593E-07  4.0677904395658646E-07   3   2   1   3
  8.6751331174546593E-07  4.0677904395658646E-07   4   1   2   4
  1.8092797571570757E-01  2.1175823681357508E-22   1   3   3   1
  1.8092797571570757E-01 -2.1175823681357508E-22   2   4   4   2
  1.8092797570281433E-01 -2.1599754163276360E-06   1   3   1   3
  1.8092797570281433E-01  2.1599754163276360E-06   2   4   2   4
  1.8092797570281433E-01 -2.1599754163276360E-06   1   3   4   2
  1.8092797570281433E-01  2.1599754163276360E-06   2   4   3   1
  1.8092797571570757E-01  2.1175823681357508E-22   1   3   2   4
  1.8092797571570757E-01 -2.1175823681357508E-22   2   4   1   3
 -3.2450403482163400E-12  3.9008089235549042E-12   1   4   3   2
 -3.2450403482163400E-12 -3.9008089235549042E-12   2   3   4   1
  3.2450403482163416E-12 -3.9008089235549042E-12   1   4   1   4
  3.2450403482163416E-12  3.9008089235549042E-12   2   3   2   3
  3.1577693956192692E-11  0.0000000000000000E+00   1   4   4   1
  3.1577693956192692E-11 -0.0000000000000000E+00   2   3   3   2
 -3.1577693956192685E-11  4.0389678347315804E-28   1   4   2   3
 -3.1577693956192685E-11 -4.0389678347315804E-28   2   3   1   4
  8.6751816806764956E-07  4.0676868733880459E-07   1   3   4   1
 -8.6751816806764956E-07  4.0676868733880459E-07   2   4   3   2
 -8.6751816806764945E-07 -4.0676868733880453E-07   1   3   2   3
  8.6751816806764945E-07 -4.0676868733880453E-07   2   4   1   4
 -8.6751331174546593E-07  4.0677904395658667E-07   1   3   3   2
  8.6751331174546593E-07  4.0677904395658667E-07   2   4   4   1
  8.6751331174546582E-07 -4.0677904395658662E-07   1   3   1   4
 -8.6751331174546582E-07 -4.0677904395658662E-07   2   4   2   3
 -8.6751331174546571E-07 -4.0677904395658662E-07   2   3   3   1
  8.6751331174546571E-07 -4.0677904395658662E-07   1   4   4   2
 -8.6751816806764945E-07 -4.0676868733880453E-07   2   3   1   3
  8.6751816806764945E-07 -4.0676868733880453E-07   1   4   2   4
  8.6751816806764935E-07 -4.0676868733880453E-07   1   4   3   1
 -8.6751816806764935E-07 -4.0676868733880453E-07   2   3   4   2
  8.6751331174546582E-07 -4.0677904395658662E-07   1   4   1   3
 -8.6751331174546582E-07 -4.0677904395658662E-07   2   3   2   4
  6.6458409696549925E-01 -2.0147291815190870E-27   3   3   1   1
  6.6458409696549925E-01  2.0147291815190870E-27   4   4   2   2
  6.9857528625678011E-01  2.7119274013623010E-39   3   3   3   3
  6.9857528625678011E-01 -2.7119274013623010E-39   4   4   4   4
  6.6458409696549925E-01  2.0147291815190870E-27   3   3   2   2
  6.6458409696549925E-01 -2.0147291815190870E-27   4   4   1   1
  6.9857528625678011E-01 -2.7119274013623010E-39   3   3   4   4
  6.9857528625678011E-01  2.7119274013623010E-39   4   4   3   3
 -1.2563451005665180E+00  1.9021971382065868E-21   1   1   0   0
 -2.6888514340004839E-16  2.8538497970344057E-21   1   3   0   0
 -1.4853708109008860E-22  0.0000000000000000E+00   1   2   0   0
 -3.1466890507216573E-21  1.9448820665052629E-21   1   4   0   0
  4.8688515912000199E-17 -1.9284147135411399E-21   3   1   0   0
 -4.7196090825069298E-01 -9.8607613152626476E-32   3   3   0   0
  1.9591922509381627E-21 -1.9178394828253263E-21   3   2   0   0
  3.0814879110195774E-32 -1.6512308735954833E-32   3   4   0   0
  1.4853708109008860E-22  0.0000000000000000E+00   2   1   0   0
  3.1466890507216573E-21  1.9448820665052629E-21   2   3   0   0
 -1.2563451005665180E+00 -1.9021971382065868E-21   2   2   0   0
 -2.6888514340004839E-16 -2.8538497970344057E-21   2   4   0   0
 -1.9591922509381627E-21 -1.9178394828253263E-21   4   1   0   0
 -3.0814879110195774E-32 -1.6512308735954833E-32   4   3   0   0
  4.8688515912000199E-17  1.9284147135411399E-21   4   2   0   0
 -4.7196090825069298E-01  9.8607613152626476E-32   4   4   0   0
 -5.8063619389427712E-01  0.0000000000000000E+00   1   0   0   0
  6.7627930994058261E-01  0.0000000000000000E+00   3   0   0   0
 -5.8063619389427712E-01  0.0000000000000000E+00   2   0   0   0
  6.7627930994058261E-01  0.0000000000000000E+00   4   0   0   0
  7.1996899442585027E-01  0.0000000000000000E+00   0   0   0   0
