&FCI NORB=    4,
    NELEC=    2,
    ORBSYM= 1, 1, 1, 1,
    ISYM=    2,
    IUHF=1,
&END
  6.7570890651427762E-01 -3.0269583643730678E-29   1   1   1   1
  6.7570890651427762E-01  3.0269583643730678E-29   2   2   2   2
 -1.2989773048151580E-14 -3.5398428153782621E-22   1   1   3   1
 -1.2989773048151580E-14  3.5398428153782621E-22   2   2   4   2
 -1.3002520047179570E-14  3.5028786853860988E-22   1   1   1   3
 -1.3002520047179570E-14 -3.5028786853860988E-22   2   2   2   4
  6.6458409651754424E-01  1.4667080693723217E-36   1   1   3   3
  6.6458409651754424E-01 -1.4667080693723217E-36   2   2   4   4
  6.7570890651427762E-01  3.0269583643730678E-29   1   1   2   2
  6.7570890651427762E-01 -3.0269583643730678E-29   2   2   1   1
 -1.2989773048151580E-14  3.5398428153782621E-22   1   1   4   2
 -1.2989773048151580E-14 -3.5398428153782621E-22   2   2   3   1
 -1.3002520047179570E-14 -3.5028786853860988E-22   1   1   2   4
 -1.3002520047179570E-14  3.5028786853860988E-22   2   2   1   3
  6.6458409651754424E-01 -1.4667080693723217E-36   1   1   4   4
  6.6458409651754424E-01  1.4667080693723217E-36   2   2   3   3
 -1.3312176257486964E-14 -9.2322206531700070E-25   3   1   1   1
 -1.3312176257486964E-14  9.2322206531700070E-25   4   2   2   2
  1.8092797565020144E-01 -1.3947347696473556E-08   3   1   3   1
  1.8092797565020144E-01  1.3947347696473556E-08   4   2   4   2
  1.8092797565020197E-01  0.0000000000000000E+00   3   1   1   3
  1.8092797565020197E-01 -0.0000000000000000E+00   4   2   2   4
  1.3525268382765016E-14 -3.0588109604100136E-21   3   1   3   3
  1.3525268382765016E-14  3.0588109604100136E-21   4   2   4   4
 -1.3312176257486964E-14 -9.8639406851878717E-25   3   1   2   2
 -1.3312176257486964E-14  9.8639406851878717E-25   4   2   1   1
  1.8092797565020199E-01  8.2718061255302767E-25   3   1   4   2
  1.8092797565020199E-01 -8.2718061255302767E-25   4   2   3   1
  1.8092797565020141E-01 -1.3947347696473556E-08   3   1   2   4
  1.8092797565020141E-01  1.3947347696473556E-08   4   2   1   3
  1.3525268382765016E-14 -3.0588109604100136E-21   3   1   4   4
  1.3525268382765016E-14  3.0588109604100136E-21   4   2   3   3
 -5.6017348974968532E-09 -2.6266237214910429E-09   3   1   4   1
  5.6017348974968532E-09 -2.6266237214910429E-09   4   2   3   2
  5.6017348974968532E-09  2.6266237214910429E-09   3   1   2   3
 -5.6017348974968532E-09  2.6266237214910429E-09   4   2   1   4
  5.6017346950160756E-09 -2.6266241533167054E-09   3   1   3   2
 -5.6017346950160756E-09 -2.6266241533167054E-09   4   2   4   1
 -5.6017346950160756E-09  2.6266241533167054E-09   3   1   1   4
  5.6017346950160756E-09  2.6266241533167054E-09   4   2   2   3
 -5.6017348974968557E-09 -2.6266237214910433E-09   4   1   3   1
  5.6017348974968557E-09 -2.6266237214910433E-09   3   2   4   2
 -5.6017346950160781E-09 -2.6266241533167058E-09   4   1   1   3
  5.6017346950160781E-09 -2.6266241533167058E-09   3   2   2   4
  5.6017346950160781E-09 -2.6266241533167058E-09   3   2   3   1
 -5.6017346950160781E-09 -2.6266241533167058E-09   4   1   4   2
  5.6017348974968557E-09 -2.6266237214910433E-09   3   2   1   3
 -5.6017348974968557E-09 -2.6266237214910433E-09   4   1   2   4
 -1.3361418893255404E-14 -1.4148035833672906E-24   1   3   1   1
 -1.3361418893255404E-14  1.4148035833672906E-24   2   4   2   2
  1.8092797565020191E-01  0.0000000000000000E+00   1   3   3   1
  1.8092797565020191E-01 -0.0000000000000000E+00   2   4   4   2
  1.8092797565020138E-01  1.3947347696473553E-08   1   3   1   3
  1.8092797565020138E-01 -1.3947347696473553E-08   2   4   2   4
  1.3352675083008997E-14  3.0501780146175407E-21   1   3   3   3
  1.3352675083008997E-14 -3.0501780146175407E-21   2   4   4   4
 -1.3361418893255404E-14 -1.3449309285012882E-24   1   3   2   2
 -1.3361418893255404E-14  1.3449309285012882E-24   2   4   1   1
  1.8092797565020136E-01  1.3947347696473551E-08   1   3   4   2
  1.8092797565020136E-01 -1.3947347696473551E-08   2   4   3   1
  1.8092797565020194E-01 -8.2718061255302767E-25   1   3   2   4
  1.8092797565020194E-01  8.2718061255302767E-25   2   4   1   3
  1.3352675083008997E-14  3.0501780146175407E-21   1   3   4   4
  1.3352675083008997E-14 -3.0501780146175407E-21   2   4   3   3
 -5.6017346950160740E-09 -2.6266241533167046E-09   1   3   4   1
  5.6017346950160740E-09 -2.6266241533167046E-09   2   4   3   2
  5.6017346950160740E-09  2.6266241533167046E-09   1   3   2   3
 -5.6017346950160740E-09  2.6266241533167046E-09   2   4   1   4
  5.6017348974968515E-09 -2.6266237214910421E-09   1   3   3   2
 -5.6017348974968515E-09 -2.6266237214910421E-09   2   4   4   1
 -5.6017348974968515E-09  2.6266237214910421E-09   1   3   1   4
  5.6017348974968515E-09  2.6266237214910421E-09   2   4   2   3
  5.6017348974968524E-09  2.6266237214910421E-09   2   3   3   1
 -5.6017348974968524E-09  2.6266237214910421E-09   1   4   4   2
  5.6017346950160756E-09  2.6266241533167046E-09   2   3   1   3
 -5.6017346950160756E-09  2.6266241533167046E-09   1   4   2   4
 -5.6017346950160748E-09  2.6266241533167046E-09   1   4   3   1
  5.6017346950160748E-09  2.6266241533167046E-09   2   3   4   2
 -5.6017348974968532E-09  2.6266237214910421E-09   1   4   1   3
  5.6017348974968532E-09  2.6266237214910421E-09   2   3   2   4
  6.6458409651754469E-01 -3.3087111765095950E-24   3   3   1   1
  6.6458409651754469E-01  3.3087111765095950E-24   4   4   2   2
  1.2029114795864394E-14 -1.3365746589731558E-21   3   3   3   1
  1.2029114795864394E-14  1.3365746589731558E-21   4   4   4   2
  1.2117014643495598E-14  1.3342326716105476E-21   3   3   1   3
  1.2117014643495598E-14 -1.3342326716105476E-21   4   4   2   4
  6.9857528488239418E-01 -6.5749624882915335E-39   3   3   3   3
  6.9857528488239418E-01  6.5749624882915335E-39   4   4   4   4
  6.6458409651754469E-01  3.3087111765095950E-24   3   3   2   2
  6.6458409651754469E-01 -3.3087111765095950E-24   4   4   1   1
  1.2029114795864394E-14  1.3365746589731558E-21   3   3   4   2
  1.2029114795864394E-14 -1.3365746589731558E-21   4   4   3   1
  1.2117014643495598E-14 -1.3342326716105476E-21   3   3   2   4
  1.2117014643495598E-14  1.3342326716105476E-21   4   4   1   3
  6.9857528488239418E-01  6.5749624882915335E-39   3   3   4   4
  6.9857528488239418E-01 -6.5749624882915335E-39   4   4   3   3
 -1.2563451005665196E+00 -5.5432853490818837E-24   1   1   0   0
 -2.8820265713337641E-14 -2.2712599698314991E-21   1   3   0   0
 -1.4466131279942914E-23  6.6174449004242214E-24   1   2   0   0
  2.6837207813815394E-21 -1.6932865011159929E-21   1   4   0   0
 -2.8545305227834100E-14  2.2881826091508531E-21   3   1   0   0
 -4.7196090825068271E-01  0.0000000000000000E+00   3   3   0   0
 -2.6701735913782604E-21  1.6901502496150348E-21   3   2   0   0
  2.9274135154685985E-32 -9.8079384194933341E-33   3   4   0   0
  1.4466131279942914E-23  6.6174449004242214E-24   2   1   0   0
 -2.6837207813815394E-21 -1.6932865011159929E-21   2   3   0   0
 -1.2563451005665196E+00  5.5432853490818837E-24   2   2   0   0
 -2.8820265713337641E-14  2.2712599698314991E-21   2   4   0   0
  2.6701735913782604E-21  1.6901502496150348E-21   4   1   0   0
 -2.9274135154685985E-32 -9.8079384194933341E-33   4   3   0   0
 -2.8545305227834100E-14 -2.2881826091508531E-21   4   2   0   0
 -4.7196090825068271E-01 -0.0000000000000000E+00   4   4   0   0
 -5.8063619404674682E-01  0.0000000000000000E+00   1   0   0   0
  6.7627930912567535E-01  0.0000000000000000E+00   3   0   0   0
 -5.8063619404674682E-01  0.0000000000000000E+00   2   0   0   0
  6.7627930912567535E-01  0.0000000000000000E+00   4   0   0   0
  7.1996899454752505E-01  0.0000000000000000E+00   0   0   0   0
