&FCI NORB=    4,
    NELEC=    2,
    ORBSYM= 1, 1, 2, 2,
    ISYM=    8,
    IUHF=1,
&END
  6.7571014699387355E-01   1   1   1   1
  6.7571014699387355E-01   2   2   2   2
  6.6458171963080359E-01   1   1   3   3
  6.6458171963080359E-01   2   2   4   4
  1.8093119536905189E-01   3   1   3   1
  1.8093119536905189E-01   4   2   4   2
  1.8093119536905189E-01   3   1   1   3
  1.8093119536905189E-01   4   2   2   4
  1.8093119536905200E-01   1   3   3   1
  1.8093119536905200E-01   2   4   4   2
  1.8093119536905200E-01   1   3   1   3
  1.8093119536905200E-01   2   4   2   4
  6.6458171963080381E-01   3   3   1   1
  6.6458171963080381E-01   4   4   2   2
  6.9857370900293125E-01   3   3   3   3
  6.9857370900293125E-01   4   4   4   4
 -1.2563390698650005E+00   1   1   0   0
 -1.7322220230154555E-17   1   3   0   0
  0.0000000000000000E+00   1   2   0   0
  0.0000000000000000E+00   1   4   0   0
 -1.5577070953811113E-17   3   1   0   0
 -4.7189601989248603E-01   3   3   0   0
  0.0000000000000000E+00   3   2   0   0
  0.0000000000000000E+00   3   4   0   0
  0.0000000000000000E+00   2   1   0   0
  0.0000000000000000E+00   2   3   0   0
 -1.2563390698650005E+00   2   2   0   0
 -1.7322220230154555E-17   2   4   0   0
  0.0000000000000000E+00   4   1   0   0
  0.0000000000000000E+00   4   3   0   0
 -1.5577070953811113E-17   4   2   0   0
 -4.7189601989248603E-01   4   4   0   0
 -5.8062892287112700E-01   1   0   0   0
  6.7633622400006954E-01   3   0   0   0
 -5.8062892287112700E-01   2   0   0   0
  6.7633622400006954E-01   4   0   0   0
  7.1996899442585027E-01   0   0   0   0
